The matrix generated by Python

6696 atoms
4 atom types
7128 bonds
3 bond types
0 angles
0 angle types
0 dihedrals
0 dihedral types
-0.485 63.535 xlo xhi
-0.485 63.535 ylo yhi
-0.485 63.535 zlo zhi

Masses

1 1.000000
2 1.000000
3 1.000000
4 1.000000

Atoms  #full 

1 1 1 0 4.85 0.0 4.85
2 1 1 0 4.85 0.0 15.52
3 1 1 0 4.85 0.0 26.189999999999998
4 1 1 0 4.85 0.0 36.86
5 1 1 0 4.85 0.0 47.53
6 1 1 0 4.85 0.0 58.199999999999996
7 1 1 0 15.52 0.0 4.85
8 1 1 0 15.52 0.0 15.52
9 1 1 0 15.52 0.0 26.189999999999998
10 1 1 0 15.52 0.0 36.86
11 1 1 0 15.52 0.0 47.53
12 1 1 0 15.52 0.0 58.199999999999996
13 1 1 0 26.189999999999998 0.0 4.85
14 1 1 0 26.189999999999998 0.0 15.52
15 1 1 0 26.189999999999998 0.0 26.189999999999998
16 1 1 0 26.189999999999998 0.0 36.86
17 1 1 0 26.189999999999998 0.0 47.53
18 1 1 0 26.189999999999998 0.0 58.199999999999996
19 1 1 0 36.86 0.0 4.85
20 1 1 0 36.86 0.0 15.52
21 1 1 0 36.86 0.0 26.189999999999998
22 1 1 0 36.86 0.0 36.86
23 1 1 0 36.86 0.0 47.53
24 1 1 0 36.86 0.0 58.199999999999996
25 1 1 0 47.53 0.0 4.85
26 1 1 0 47.53 0.0 15.52
27 1 1 0 47.53 0.0 26.189999999999998
28 1 1 0 47.53 0.0 36.86
29 1 1 0 47.53 0.0 47.53
30 1 1 0 47.53 0.0 58.199999999999996
31 1 1 0 58.199999999999996 0.0 4.85
32 1 1 0 58.199999999999996 0.0 15.52
33 1 1 0 58.199999999999996 0.0 26.189999999999998
34 1 1 0 58.199999999999996 0.0 36.86
35 1 1 0 58.199999999999996 0.0 47.53
36 1 1 0 58.199999999999996 0.0 58.199999999999996
37 1 1 0 4.85 0.97 4.85
38 1 1 0 4.85 0.97 15.52
39 1 1 0 4.85 0.97 26.189999999999998
40 1 1 0 4.85 0.97 36.86
41 1 1 0 4.85 0.97 47.53
42 1 1 0 4.85 0.97 58.199999999999996
43 1 1 0 15.52 0.97 4.85
44 1 1 0 15.52 0.97 15.52
45 1 1 0 15.52 0.97 26.189999999999998
46 1 1 0 15.52 0.97 36.86
47 1 1 0 15.52 0.97 47.53
48 1 1 0 15.52 0.97 58.199999999999996
49 1 1 0 26.189999999999998 0.97 4.85
50 1 1 0 26.189999999999998 0.97 15.52
51 1 1 0 26.189999999999998 0.97 26.189999999999998
52 1 1 0 26.189999999999998 0.97 36.86
53 1 1 0 26.189999999999998 0.97 47.53
54 1 1 0 26.189999999999998 0.97 58.199999999999996
55 1 1 0 36.86 0.97 4.85
56 1 1 0 36.86 0.97 15.52
57 1 1 0 36.86 0.97 26.189999999999998
58 1 1 0 36.86 0.97 36.86
59 1 1 0 36.86 0.97 47.53
60 1 1 0 36.86 0.97 58.199999999999996
61 1 1 0 47.53 0.97 4.85
62 1 1 0 47.53 0.97 15.52
63 1 1 0 47.53 0.97 26.189999999999998
64 1 1 0 47.53 0.97 36.86
65 1 1 0 47.53 0.97 47.53
66 1 1 0 47.53 0.97 58.199999999999996
67 1 1 0 58.199999999999996 0.97 4.85
68 1 1 0 58.199999999999996 0.97 15.52
69 1 1 0 58.199999999999996 0.97 26.189999999999998
70 1 1 0 58.199999999999996 0.97 36.86
71 1 1 0 58.199999999999996 0.97 47.53
72 1 1 0 58.199999999999996 0.97 58.199999999999996
73 1 1 0 4.85 1.94 4.85
74 1 1 0 4.85 1.94 15.52
75 1 1 0 4.85 1.94 26.189999999999998
76 1 1 0 4.85 1.94 36.86
77 1 1 0 4.85 1.94 47.53
78 1 1 0 4.85 1.94 58.199999999999996
79 1 1 0 15.52 1.94 4.85
80 1 1 0 15.52 1.94 15.52
81 1 1 0 15.52 1.94 26.189999999999998
82 1 1 0 15.52 1.94 36.86
83 1 1 0 15.52 1.94 47.53
84 1 1 0 15.52 1.94 58.199999999999996
85 1 1 0 26.189999999999998 1.94 4.85
86 1 1 0 26.189999999999998 1.94 15.52
87 1 1 0 26.189999999999998 1.94 26.189999999999998
88 1 1 0 26.189999999999998 1.94 36.86
89 1 1 0 26.189999999999998 1.94 47.53
90 1 1 0 26.189999999999998 1.94 58.199999999999996
91 1 1 0 36.86 1.94 4.85
92 1 1 0 36.86 1.94 15.52
93 1 1 0 36.86 1.94 26.189999999999998
94 1 1 0 36.86 1.94 36.86
95 1 1 0 36.86 1.94 47.53
96 1 1 0 36.86 1.94 58.199999999999996
97 1 1 0 47.53 1.94 4.85
98 1 1 0 47.53 1.94 15.52
99 1 1 0 47.53 1.94 26.189999999999998
100 1 1 0 47.53 1.94 36.86
101 1 1 0 47.53 1.94 47.53
102 1 1 0 47.53 1.94 58.199999999999996
103 1 1 0 58.199999999999996 1.94 4.85
104 1 1 0 58.199999999999996 1.94 15.52
105 1 1 0 58.199999999999996 1.94 26.189999999999998
106 1 1 0 58.199999999999996 1.94 36.86
107 1 1 0 58.199999999999996 1.94 47.53
108 1 1 0 58.199999999999996 1.94 58.199999999999996
109 1 1 0 4.85 2.91 4.85
110 1 1 0 4.85 2.91 15.52
111 1 1 0 4.85 2.91 26.189999999999998
112 1 1 0 4.85 2.91 36.86
113 1 1 0 4.85 2.91 47.53
114 1 1 0 4.85 2.91 58.199999999999996
115 1 1 0 15.52 2.91 4.85
116 1 1 0 15.52 2.91 15.52
117 1 1 0 15.52 2.91 26.189999999999998
118 1 1 0 15.52 2.91 36.86
119 1 1 0 15.52 2.91 47.53
120 1 1 0 15.52 2.91 58.199999999999996
121 1 1 0 26.189999999999998 2.91 4.85
122 1 1 0 26.189999999999998 2.91 15.52
123 1 1 0 26.189999999999998 2.91 26.189999999999998
124 1 1 0 26.189999999999998 2.91 36.86
125 1 1 0 26.189999999999998 2.91 47.53
126 1 1 0 26.189999999999998 2.91 58.199999999999996
127 1 1 0 36.86 2.91 4.85
128 1 1 0 36.86 2.91 15.52
129 1 1 0 36.86 2.91 26.189999999999998
130 1 1 0 36.86 2.91 36.86
131 1 1 0 36.86 2.91 47.53
132 1 1 0 36.86 2.91 58.199999999999996
133 1 1 0 47.53 2.91 4.85
134 1 1 0 47.53 2.91 15.52
135 1 1 0 47.53 2.91 26.189999999999998
136 1 1 0 47.53 2.91 36.86
137 1 1 0 47.53 2.91 47.53
138 1 1 0 47.53 2.91 58.199999999999996
139 1 1 0 58.199999999999996 2.91 4.85
140 1 1 0 58.199999999999996 2.91 15.52
141 1 1 0 58.199999999999996 2.91 26.189999999999998
142 1 1 0 58.199999999999996 2.91 36.86
143 1 1 0 58.199999999999996 2.91 47.53
144 1 1 0 58.199999999999996 2.91 58.199999999999996
145 1 1 0 4.85 3.88 4.85
146 1 1 0 4.85 3.88 15.52
147 1 1 0 4.85 3.88 26.189999999999998
148 1 1 0 4.85 3.88 36.86
149 1 1 0 4.85 3.88 47.53
150 1 1 0 4.85 3.88 58.199999999999996
151 1 1 0 15.52 3.88 4.85
152 1 1 0 15.52 3.88 15.52
153 1 1 0 15.52 3.88 26.189999999999998
154 1 1 0 15.52 3.88 36.86
155 1 1 0 15.52 3.88 47.53
156 1 1 0 15.52 3.88 58.199999999999996
157 1 1 0 26.189999999999998 3.88 4.85
158 1 1 0 26.189999999999998 3.88 15.52
159 1 1 0 26.189999999999998 3.88 26.189999999999998
160 1 1 0 26.189999999999998 3.88 36.86
161 1 1 0 26.189999999999998 3.88 47.53
162 1 1 0 26.189999999999998 3.88 58.199999999999996
163 1 1 0 36.86 3.88 4.85
164 1 1 0 36.86 3.88 15.52
165 1 1 0 36.86 3.88 26.189999999999998
166 1 1 0 36.86 3.88 36.86
167 1 1 0 36.86 3.88 47.53
168 1 1 0 36.86 3.88 58.199999999999996
169 1 1 0 47.53 3.88 4.85
170 1 1 0 47.53 3.88 15.52
171 1 1 0 47.53 3.88 26.189999999999998
172 1 1 0 47.53 3.88 36.86
173 1 1 0 47.53 3.88 47.53
174 1 1 0 47.53 3.88 58.199999999999996
175 1 1 0 58.199999999999996 3.88 4.85
176 1 1 0 58.199999999999996 3.88 15.52
177 1 1 0 58.199999999999996 3.88 26.189999999999998
178 1 1 0 58.199999999999996 3.88 36.86
179 1 1 0 58.199999999999996 3.88 47.53
180 1 1 0 58.199999999999996 3.88 58.199999999999996
181 1 1 0 0.0 4.85 4.85
182 1 1 0 0.0 4.85 15.52
183 1 1 0 0.0 4.85 26.189999999999998
184 1 1 0 0.0 4.85 36.86
185 1 1 0 0.0 4.85 47.53
186 1 1 0 0.0 4.85 58.199999999999996
187 1 1 0 0.97 4.85 4.85
188 1 1 0 0.97 4.85 15.52
189 1 1 0 0.97 4.85 26.189999999999998
190 1 1 0 0.97 4.85 36.86
191 1 1 0 0.97 4.85 47.53
192 1 1 0 0.97 4.85 58.199999999999996
193 1 1 0 1.94 4.85 4.85
194 1 1 0 1.94 4.85 15.52
195 1 1 0 1.94 4.85 26.189999999999998
196 1 1 0 1.94 4.85 36.86
197 1 1 0 1.94 4.85 47.53
198 1 1 0 1.94 4.85 58.199999999999996
199 1 1 0 2.91 4.85 4.85
200 1 1 0 2.91 4.85 15.52
201 1 1 0 2.91 4.85 26.189999999999998
202 1 1 0 2.91 4.85 36.86
203 1 1 0 2.91 4.85 47.53
204 1 1 0 2.91 4.85 58.199999999999996
205 1 1 0 3.88 4.85 4.85
206 1 1 0 3.88 4.85 15.52
207 1 1 0 3.88 4.85 26.189999999999998
208 1 1 0 3.88 4.85 36.86
209 1 1 0 3.88 4.85 47.53
210 1 1 0 3.88 4.85 58.199999999999996
211 1 1 0 4.85 4.85 0.0
212 1 1 0 4.85 4.85 0.97
213 1 1 0 4.85 4.85 1.94
214 1 1 0 4.85 4.85 2.91
215 1 1 0 4.85 4.85 3.88
216 1 2 0 4.85 4.85 4.85
217 1 1 0 4.85 4.85 5.82
218 1 1 0 4.85 4.85 6.79
219 1 1 0 4.85 4.85 7.76
220 1 1 0 4.85 4.85 8.73
221 1 1 0 4.85 4.85 9.7
222 1 1 0 4.85 4.85 10.67
223 1 1 0 4.85 4.85 11.64
224 1 1 0 4.85 4.85 12.61
225 1 1 0 4.85 4.85 13.58
226 1 1 0 4.85 4.85 14.549999999999999
227 1 2 0 4.85 4.85 15.52
228 1 1 0 4.85 4.85 16.49
229 1 1 0 4.85 4.85 17.46
230 1 1 0 4.85 4.85 18.43
231 1 1 0 4.85 4.85 19.4
232 1 1 0 4.85 4.85 20.37
233 1 1 0 4.85 4.85 21.34
234 1 1 0 4.85 4.85 22.31
235 1 1 0 4.85 4.85 23.28
236 1 1 0 4.85 4.85 24.25
237 1 1 0 4.85 4.85 25.22
238 1 2 0 4.85 4.85 26.189999999999998
239 1 1 0 4.85 4.85 27.16
240 1 1 0 4.85 4.85 28.13
241 1 1 0 4.85 4.85 29.099999999999998
242 1 1 0 4.85 4.85 30.07
243 1 1 0 4.85 4.85 31.04
244 1 1 0 4.85 4.85 32.01
245 1 1 0 4.85 4.85 32.98
246 1 1 0 4.85 4.85 33.949999999999996
247 1 1 0 4.85 4.85 34.92
248 1 1 0 4.85 4.85 35.89
249 1 2 0 4.85 4.85 36.86
250 1 1 0 4.85 4.85 37.83
251 1 1 0 4.85 4.85 38.8
252 1 1 0 4.85 4.85 39.769999999999996
253 1 1 0 4.85 4.85 40.74
254 1 1 0 4.85 4.85 41.71
255 1 1 0 4.85 4.85 42.68
256 1 1 0 4.85 4.85 43.65
257 1 1 0 4.85 4.85 44.62
258 1 1 0 4.85 4.85 45.589999999999996
259 1 1 0 4.85 4.85 46.56
260 1 2 0 4.85 4.85 47.53
261 1 1 0 4.85 4.85 48.5
262 1 1 0 4.85 4.85 49.47
263 1 1 0 4.85 4.85 50.44
264 1 1 0 4.85 4.85 51.41
265 1 1 0 4.85 4.85 52.379999999999995
266 1 1 0 4.85 4.85 53.35
267 1 1 0 4.85 4.85 54.32
268 1 1 0 4.85 4.85 55.29
269 1 1 0 4.85 4.85 56.26
270 1 1 0 4.85 4.85 57.23
271 1 2 0 4.85 4.85 58.199999999999996
272 1 1 0 4.85 4.85 59.17
273 1 1 0 4.85 4.85 60.14
274 1 1 0 4.85 4.85 61.11
275 1 1 0 4.85 4.85 62.08
276 1 1 0 4.85 4.85 63.05
277 1 1 0 5.82 4.85 4.85
278 1 1 0 5.82 4.85 15.52
279 1 1 0 5.82 4.85 26.189999999999998
280 1 1 0 5.82 4.85 36.86
281 1 1 0 5.82 4.85 47.53
282 1 1 0 5.82 4.85 58.199999999999996
283 1 1 0 6.79 4.85 4.85
284 1 1 0 6.79 4.85 15.52
285 1 1 0 6.79 4.85 26.189999999999998
286 1 1 0 6.79 4.85 36.86
287 1 1 0 6.79 4.85 47.53
288 1 1 0 6.79 4.85 58.199999999999996
289 1 1 0 7.76 4.85 4.85
290 1 1 0 7.76 4.85 15.52
291 1 1 0 7.76 4.85 26.189999999999998
292 1 1 0 7.76 4.85 36.86
293 1 1 0 7.76 4.85 47.53
294 1 1 0 7.76 4.85 58.199999999999996
295 1 1 0 8.73 4.85 4.85
296 1 1 0 8.73 4.85 15.52
297 1 1 0 8.73 4.85 26.189999999999998
298 1 1 0 8.73 4.85 36.86
299 1 1 0 8.73 4.85 47.53
300 1 1 0 8.73 4.85 58.199999999999996
301 1 1 0 9.7 4.85 4.85
302 1 1 0 9.7 4.85 15.52
303 1 1 0 9.7 4.85 26.189999999999998
304 1 1 0 9.7 4.85 36.86
305 1 1 0 9.7 4.85 47.53
306 1 1 0 9.7 4.85 58.199999999999996
307 1 1 0 10.67 4.85 4.85
308 1 1 0 10.67 4.85 15.52
309 1 1 0 10.67 4.85 26.189999999999998
310 1 1 0 10.67 4.85 36.86
311 1 1 0 10.67 4.85 47.53
312 1 1 0 10.67 4.85 58.199999999999996
313 1 1 0 11.64 4.85 4.85
314 1 1 0 11.64 4.85 15.52
315 1 1 0 11.64 4.85 26.189999999999998
316 1 1 0 11.64 4.85 36.86
317 1 1 0 11.64 4.85 47.53
318 1 1 0 11.64 4.85 58.199999999999996
319 1 1 0 12.61 4.85 4.85
320 1 1 0 12.61 4.85 15.52
321 1 1 0 12.61 4.85 26.189999999999998
322 1 1 0 12.61 4.85 36.86
323 1 1 0 12.61 4.85 47.53
324 1 1 0 12.61 4.85 58.199999999999996
325 1 1 0 13.58 4.85 4.85
326 1 1 0 13.58 4.85 15.52
327 1 1 0 13.58 4.85 26.189999999999998
328 1 1 0 13.58 4.85 36.86
329 1 1 0 13.58 4.85 47.53
330 1 1 0 13.58 4.85 58.199999999999996
331 1 1 0 14.549999999999999 4.85 4.85
332 1 1 0 14.549999999999999 4.85 15.52
333 1 1 0 14.549999999999999 4.85 26.189999999999998
334 1 1 0 14.549999999999999 4.85 36.86
335 1 1 0 14.549999999999999 4.85 47.53
336 1 1 0 14.549999999999999 4.85 58.199999999999996
337 1 1 0 15.52 4.85 0.0
338 1 1 0 15.52 4.85 0.97
339 1 1 0 15.52 4.85 1.94
340 1 1 0 15.52 4.85 2.91
341 1 1 0 15.52 4.85 3.88
342 1 2 0 15.52 4.85 4.85
343 1 1 0 15.52 4.85 5.82
344 1 1 0 15.52 4.85 6.79
345 1 1 0 15.52 4.85 7.76
346 1 1 0 15.52 4.85 8.73
347 1 1 0 15.52 4.85 9.7
348 1 1 0 15.52 4.85 10.67
349 1 1 0 15.52 4.85 11.64
350 1 1 0 15.52 4.85 12.61
351 1 1 0 15.52 4.85 13.58
352 1 1 0 15.52 4.85 14.549999999999999
353 1 2 0 15.52 4.85 15.52
354 1 1 0 15.52 4.85 16.49
355 1 1 0 15.52 4.85 17.46
356 1 1 0 15.52 4.85 18.43
357 1 1 0 15.52 4.85 19.4
358 1 1 0 15.52 4.85 20.37
359 1 1 0 15.52 4.85 21.34
360 1 1 0 15.52 4.85 22.31
361 1 1 0 15.52 4.85 23.28
362 1 1 0 15.52 4.85 24.25
363 1 1 0 15.52 4.85 25.22
364 1 2 0 15.52 4.85 26.189999999999998
365 1 1 0 15.52 4.85 27.16
366 1 1 0 15.52 4.85 28.13
367 1 1 0 15.52 4.85 29.099999999999998
368 1 1 0 15.52 4.85 30.07
369 1 1 0 15.52 4.85 31.04
370 1 1 0 15.52 4.85 32.01
371 1 1 0 15.52 4.85 32.98
372 1 1 0 15.52 4.85 33.949999999999996
373 1 1 0 15.52 4.85 34.92
374 1 1 0 15.52 4.85 35.89
375 1 2 0 15.52 4.85 36.86
376 1 1 0 15.52 4.85 37.83
377 1 1 0 15.52 4.85 38.8
378 1 1 0 15.52 4.85 39.769999999999996
379 1 1 0 15.52 4.85 40.74
380 1 1 0 15.52 4.85 41.71
381 1 1 0 15.52 4.85 42.68
382 1 1 0 15.52 4.85 43.65
383 1 1 0 15.52 4.85 44.62
384 1 1 0 15.52 4.85 45.589999999999996
385 1 1 0 15.52 4.85 46.56
386 1 2 0 15.52 4.85 47.53
387 1 1 0 15.52 4.85 48.5
388 1 1 0 15.52 4.85 49.47
389 1 1 0 15.52 4.85 50.44
390 1 1 0 15.52 4.85 51.41
391 1 1 0 15.52 4.85 52.379999999999995
392 1 1 0 15.52 4.85 53.35
393 1 1 0 15.52 4.85 54.32
394 1 1 0 15.52 4.85 55.29
395 1 1 0 15.52 4.85 56.26
396 1 1 0 15.52 4.85 57.23
397 1 2 0 15.52 4.85 58.199999999999996
398 1 1 0 15.52 4.85 59.17
399 1 1 0 15.52 4.85 60.14
400 1 1 0 15.52 4.85 61.11
401 1 1 0 15.52 4.85 62.08
402 1 1 0 15.52 4.85 63.05
403 1 1 0 16.49 4.85 4.85
404 1 1 0 16.49 4.85 15.52
405 1 1 0 16.49 4.85 26.189999999999998
406 1 1 0 16.49 4.85 36.86
407 1 1 0 16.49 4.85 47.53
408 1 1 0 16.49 4.85 58.199999999999996
409 1 1 0 17.46 4.85 4.85
410 1 1 0 17.46 4.85 15.52
411 1 1 0 17.46 4.85 26.189999999999998
412 1 1 0 17.46 4.85 36.86
413 1 1 0 17.46 4.85 47.53
414 1 1 0 17.46 4.85 58.199999999999996
415 1 1 0 18.43 4.85 4.85
416 1 1 0 18.43 4.85 15.52
417 1 1 0 18.43 4.85 26.189999999999998
418 1 1 0 18.43 4.85 36.86
419 1 1 0 18.43 4.85 47.53
420 1 1 0 18.43 4.85 58.199999999999996
421 1 1 0 19.4 4.85 4.85
422 1 1 0 19.4 4.85 15.52
423 1 1 0 19.4 4.85 26.189999999999998
424 1 1 0 19.4 4.85 36.86
425 1 1 0 19.4 4.85 47.53
426 1 1 0 19.4 4.85 58.199999999999996
427 1 1 0 20.37 4.85 4.85
428 1 1 0 20.37 4.85 15.52
429 1 1 0 20.37 4.85 26.189999999999998
430 1 1 0 20.37 4.85 36.86
431 1 1 0 20.37 4.85 47.53
432 1 1 0 20.37 4.85 58.199999999999996
433 1 1 0 21.34 4.85 4.85
434 1 1 0 21.34 4.85 15.52
435 1 1 0 21.34 4.85 26.189999999999998
436 1 1 0 21.34 4.85 36.86
437 1 1 0 21.34 4.85 47.53
438 1 1 0 21.34 4.85 58.199999999999996
439 1 1 0 22.31 4.85 4.85
440 1 1 0 22.31 4.85 15.52
441 1 1 0 22.31 4.85 26.189999999999998
442 1 1 0 22.31 4.85 36.86
443 1 1 0 22.31 4.85 47.53
444 1 1 0 22.31 4.85 58.199999999999996
445 1 1 0 23.28 4.85 4.85
446 1 1 0 23.28 4.85 15.52
447 1 1 0 23.28 4.85 26.189999999999998
448 1 1 0 23.28 4.85 36.86
449 1 1 0 23.28 4.85 47.53
450 1 1 0 23.28 4.85 58.199999999999996
451 1 1 0 24.25 4.85 4.85
452 1 1 0 24.25 4.85 15.52
453 1 1 0 24.25 4.85 26.189999999999998
454 1 1 0 24.25 4.85 36.86
455 1 1 0 24.25 4.85 47.53
456 1 1 0 24.25 4.85 58.199999999999996
457 1 1 0 25.22 4.85 4.85
458 1 1 0 25.22 4.85 15.52
459 1 1 0 25.22 4.85 26.189999999999998
460 1 1 0 25.22 4.85 36.86
461 1 1 0 25.22 4.85 47.53
462 1 1 0 25.22 4.85 58.199999999999996
463 1 1 0 26.189999999999998 4.85 0.0
464 1 1 0 26.189999999999998 4.85 0.97
465 1 1 0 26.189999999999998 4.85 1.94
466 1 1 0 26.189999999999998 4.85 2.91
467 1 1 0 26.189999999999998 4.85 3.88
468 1 2 0 26.189999999999998 4.85 4.85
469 1 1 0 26.189999999999998 4.85 5.82
470 1 1 0 26.189999999999998 4.85 6.79
471 1 1 0 26.189999999999998 4.85 7.76
472 1 1 0 26.189999999999998 4.85 8.73
473 1 1 0 26.189999999999998 4.85 9.7
474 1 1 0 26.189999999999998 4.85 10.67
475 1 1 0 26.189999999999998 4.85 11.64
476 1 1 0 26.189999999999998 4.85 12.61
477 1 1 0 26.189999999999998 4.85 13.58
478 1 1 0 26.189999999999998 4.85 14.549999999999999
479 1 2 0 26.189999999999998 4.85 15.52
480 1 1 0 26.189999999999998 4.85 16.49
481 1 1 0 26.189999999999998 4.85 17.46
482 1 1 0 26.189999999999998 4.85 18.43
483 1 1 0 26.189999999999998 4.85 19.4
484 1 1 0 26.189999999999998 4.85 20.37
485 1 1 0 26.189999999999998 4.85 21.34
486 1 1 0 26.189999999999998 4.85 22.31
487 1 1 0 26.189999999999998 4.85 23.28
488 1 1 0 26.189999999999998 4.85 24.25
489 1 1 0 26.189999999999998 4.85 25.22
490 1 2 0 26.189999999999998 4.85 26.189999999999998
491 1 1 0 26.189999999999998 4.85 27.16
492 1 1 0 26.189999999999998 4.85 28.13
493 1 1 0 26.189999999999998 4.85 29.099999999999998
494 1 1 0 26.189999999999998 4.85 30.07
495 1 1 0 26.189999999999998 4.85 31.04
496 1 1 0 26.189999999999998 4.85 32.01
497 1 1 0 26.189999999999998 4.85 32.98
498 1 1 0 26.189999999999998 4.85 33.949999999999996
499 1 1 0 26.189999999999998 4.85 34.92
500 1 1 0 26.189999999999998 4.85 35.89
501 1 2 0 26.189999999999998 4.85 36.86
502 1 1 0 26.189999999999998 4.85 37.83
503 1 1 0 26.189999999999998 4.85 38.8
504 1 1 0 26.189999999999998 4.85 39.769999999999996
505 1 1 0 26.189999999999998 4.85 40.74
506 1 1 0 26.189999999999998 4.85 41.71
507 1 1 0 26.189999999999998 4.85 42.68
508 1 1 0 26.189999999999998 4.85 43.65
509 1 1 0 26.189999999999998 4.85 44.62
510 1 1 0 26.189999999999998 4.85 45.589999999999996
511 1 1 0 26.189999999999998 4.85 46.56
512 1 2 0 26.189999999999998 4.85 47.53
513 1 1 0 26.189999999999998 4.85 48.5
514 1 1 0 26.189999999999998 4.85 49.47
515 1 1 0 26.189999999999998 4.85 50.44
516 1 1 0 26.189999999999998 4.85 51.41
517 1 1 0 26.189999999999998 4.85 52.379999999999995
518 1 1 0 26.189999999999998 4.85 53.35
519 1 1 0 26.189999999999998 4.85 54.32
520 1 1 0 26.189999999999998 4.85 55.29
521 1 1 0 26.189999999999998 4.85 56.26
522 1 1 0 26.189999999999998 4.85 57.23
523 1 2 0 26.189999999999998 4.85 58.199999999999996
524 1 1 0 26.189999999999998 4.85 59.17
525 1 1 0 26.189999999999998 4.85 60.14
526 1 1 0 26.189999999999998 4.85 61.11
527 1 1 0 26.189999999999998 4.85 62.08
528 1 1 0 26.189999999999998 4.85 63.05
529 1 1 0 27.16 4.85 4.85
530 1 1 0 27.16 4.85 15.52
531 1 1 0 27.16 4.85 26.189999999999998
532 1 1 0 27.16 4.85 36.86
533 1 1 0 27.16 4.85 47.53
534 1 1 0 27.16 4.85 58.199999999999996
535 1 1 0 28.13 4.85 4.85
536 1 1 0 28.13 4.85 15.52
537 1 1 0 28.13 4.85 26.189999999999998
538 1 1 0 28.13 4.85 36.86
539 1 1 0 28.13 4.85 47.53
540 1 1 0 28.13 4.85 58.199999999999996
541 1 1 0 29.099999999999998 4.85 4.85
542 1 1 0 29.099999999999998 4.85 15.52
543 1 1 0 29.099999999999998 4.85 26.189999999999998
544 1 1 0 29.099999999999998 4.85 36.86
545 1 1 0 29.099999999999998 4.85 47.53
546 1 1 0 29.099999999999998 4.85 58.199999999999996
547 1 1 0 30.07 4.85 4.85
548 1 1 0 30.07 4.85 15.52
549 1 1 0 30.07 4.85 26.189999999999998
550 1 1 0 30.07 4.85 36.86
551 1 1 0 30.07 4.85 47.53
552 1 1 0 30.07 4.85 58.199999999999996
553 1 1 0 31.04 4.85 4.85
554 1 1 0 31.04 4.85 15.52
555 1 1 0 31.04 4.85 26.189999999999998
556 1 1 0 31.04 4.85 36.86
557 1 1 0 31.04 4.85 47.53
558 1 1 0 31.04 4.85 58.199999999999996
559 1 1 0 32.01 4.85 4.85
560 1 1 0 32.01 4.85 15.52
561 1 1 0 32.01 4.85 26.189999999999998
562 1 1 0 32.01 4.85 36.86
563 1 1 0 32.01 4.85 47.53
564 1 1 0 32.01 4.85 58.199999999999996
565 1 1 0 32.98 4.85 4.85
566 1 1 0 32.98 4.85 15.52
567 1 1 0 32.98 4.85 26.189999999999998
568 1 1 0 32.98 4.85 36.86
569 1 1 0 32.98 4.85 47.53
570 1 1 0 32.98 4.85 58.199999999999996
571 1 1 0 33.949999999999996 4.85 4.85
572 1 1 0 33.949999999999996 4.85 15.52
573 1 1 0 33.949999999999996 4.85 26.189999999999998
574 1 1 0 33.949999999999996 4.85 36.86
575 1 1 0 33.949999999999996 4.85 47.53
576 1 1 0 33.949999999999996 4.85 58.199999999999996
577 1 1 0 34.92 4.85 4.85
578 1 1 0 34.92 4.85 15.52
579 1 1 0 34.92 4.85 26.189999999999998
580 1 1 0 34.92 4.85 36.86
581 1 1 0 34.92 4.85 47.53
582 1 1 0 34.92 4.85 58.199999999999996
583 1 1 0 35.89 4.85 4.85
584 1 1 0 35.89 4.85 15.52
585 1 1 0 35.89 4.85 26.189999999999998
586 1 1 0 35.89 4.85 36.86
587 1 1 0 35.89 4.85 47.53
588 1 1 0 35.89 4.85 58.199999999999996
589 1 1 0 36.86 4.85 0.0
590 1 1 0 36.86 4.85 0.97
591 1 1 0 36.86 4.85 1.94
592 1 1 0 36.86 4.85 2.91
593 1 1 0 36.86 4.85 3.88
594 1 2 0 36.86 4.85 4.85
595 1 1 0 36.86 4.85 5.82
596 1 1 0 36.86 4.85 6.79
597 1 1 0 36.86 4.85 7.76
598 1 1 0 36.86 4.85 8.73
599 1 1 0 36.86 4.85 9.7
600 1 1 0 36.86 4.85 10.67
601 1 1 0 36.86 4.85 11.64
602 1 1 0 36.86 4.85 12.61
603 1 1 0 36.86 4.85 13.58
604 1 1 0 36.86 4.85 14.549999999999999
605 1 2 0 36.86 4.85 15.52
606 1 1 0 36.86 4.85 16.49
607 1 1 0 36.86 4.85 17.46
608 1 1 0 36.86 4.85 18.43
609 1 1 0 36.86 4.85 19.4
610 1 1 0 36.86 4.85 20.37
611 1 1 0 36.86 4.85 21.34
612 1 1 0 36.86 4.85 22.31
613 1 1 0 36.86 4.85 23.28
614 1 1 0 36.86 4.85 24.25
615 1 1 0 36.86 4.85 25.22
616 1 2 0 36.86 4.85 26.189999999999998
617 1 1 0 36.86 4.85 27.16
618 1 1 0 36.86 4.85 28.13
619 1 1 0 36.86 4.85 29.099999999999998
620 1 1 0 36.86 4.85 30.07
621 1 1 0 36.86 4.85 31.04
622 1 1 0 36.86 4.85 32.01
623 1 1 0 36.86 4.85 32.98
624 1 1 0 36.86 4.85 33.949999999999996
625 1 1 0 36.86 4.85 34.92
626 1 1 0 36.86 4.85 35.89
627 1 2 0 36.86 4.85 36.86
628 1 1 0 36.86 4.85 37.83
629 1 1 0 36.86 4.85 38.8
630 1 1 0 36.86 4.85 39.769999999999996
631 1 1 0 36.86 4.85 40.74
632 1 1 0 36.86 4.85 41.71
633 1 1 0 36.86 4.85 42.68
634 1 1 0 36.86 4.85 43.65
635 1 1 0 36.86 4.85 44.62
636 1 1 0 36.86 4.85 45.589999999999996
637 1 1 0 36.86 4.85 46.56
638 1 2 0 36.86 4.85 47.53
639 1 1 0 36.86 4.85 48.5
640 1 1 0 36.86 4.85 49.47
641 1 1 0 36.86 4.85 50.44
642 1 1 0 36.86 4.85 51.41
643 1 1 0 36.86 4.85 52.379999999999995
644 1 1 0 36.86 4.85 53.35
645 1 1 0 36.86 4.85 54.32
646 1 1 0 36.86 4.85 55.29
647 1 1 0 36.86 4.85 56.26
648 1 1 0 36.86 4.85 57.23
649 1 2 0 36.86 4.85 58.199999999999996
650 1 1 0 36.86 4.85 59.17
651 1 1 0 36.86 4.85 60.14
652 1 1 0 36.86 4.85 61.11
653 1 1 0 36.86 4.85 62.08
654 1 1 0 36.86 4.85 63.05
655 1 1 0 37.83 4.85 4.85
656 1 1 0 37.83 4.85 15.52
657 1 1 0 37.83 4.85 26.189999999999998
658 1 1 0 37.83 4.85 36.86
659 1 1 0 37.83 4.85 47.53
660 1 1 0 37.83 4.85 58.199999999999996
661 1 1 0 38.8 4.85 4.85
662 1 1 0 38.8 4.85 15.52
663 1 1 0 38.8 4.85 26.189999999999998
664 1 1 0 38.8 4.85 36.86
665 1 1 0 38.8 4.85 47.53
666 1 1 0 38.8 4.85 58.199999999999996
667 1 1 0 39.769999999999996 4.85 4.85
668 1 1 0 39.769999999999996 4.85 15.52
669 1 1 0 39.769999999999996 4.85 26.189999999999998
670 1 1 0 39.769999999999996 4.85 36.86
671 1 1 0 39.769999999999996 4.85 47.53
672 1 1 0 39.769999999999996 4.85 58.199999999999996
673 1 1 0 40.74 4.85 4.85
674 1 1 0 40.74 4.85 15.52
675 1 1 0 40.74 4.85 26.189999999999998
676 1 1 0 40.74 4.85 36.86
677 1 1 0 40.74 4.85 47.53
678 1 1 0 40.74 4.85 58.199999999999996
679 1 1 0 41.71 4.85 4.85
680 1 1 0 41.71 4.85 15.52
681 1 1 0 41.71 4.85 26.189999999999998
682 1 1 0 41.71 4.85 36.86
683 1 1 0 41.71 4.85 47.53
684 1 1 0 41.71 4.85 58.199999999999996
685 1 1 0 42.68 4.85 4.85
686 1 1 0 42.68 4.85 15.52
687 1 1 0 42.68 4.85 26.189999999999998
688 1 1 0 42.68 4.85 36.86
689 1 1 0 42.68 4.85 47.53
690 1 1 0 42.68 4.85 58.199999999999996
691 1 1 0 43.65 4.85 4.85
692 1 1 0 43.65 4.85 15.52
693 1 1 0 43.65 4.85 26.189999999999998
694 1 1 0 43.65 4.85 36.86
695 1 1 0 43.65 4.85 47.53
696 1 1 0 43.65 4.85 58.199999999999996
697 1 1 0 44.62 4.85 4.85
698 1 1 0 44.62 4.85 15.52
699 1 1 0 44.62 4.85 26.189999999999998
700 1 1 0 44.62 4.85 36.86
701 1 1 0 44.62 4.85 47.53
702 1 1 0 44.62 4.85 58.199999999999996
703 1 1 0 45.589999999999996 4.85 4.85
704 1 1 0 45.589999999999996 4.85 15.52
705 1 1 0 45.589999999999996 4.85 26.189999999999998
706 1 1 0 45.589999999999996 4.85 36.86
707 1 1 0 45.589999999999996 4.85 47.53
708 1 1 0 45.589999999999996 4.85 58.199999999999996
709 1 1 0 46.56 4.85 4.85
710 1 1 0 46.56 4.85 15.52
711 1 1 0 46.56 4.85 26.189999999999998
712 1 1 0 46.56 4.85 36.86
713 1 1 0 46.56 4.85 47.53
714 1 1 0 46.56 4.85 58.199999999999996
715 1 1 0 47.53 4.85 0.0
716 1 1 0 47.53 4.85 0.97
717 1 1 0 47.53 4.85 1.94
718 1 1 0 47.53 4.85 2.91
719 1 1 0 47.53 4.85 3.88
720 1 2 0 47.53 4.85 4.85
721 1 1 0 47.53 4.85 5.82
722 1 1 0 47.53 4.85 6.79
723 1 1 0 47.53 4.85 7.76
724 1 1 0 47.53 4.85 8.73
725 1 1 0 47.53 4.85 9.7
726 1 1 0 47.53 4.85 10.67
727 1 1 0 47.53 4.85 11.64
728 1 1 0 47.53 4.85 12.61
729 1 1 0 47.53 4.85 13.58
730 1 1 0 47.53 4.85 14.549999999999999
731 1 2 0 47.53 4.85 15.52
732 1 1 0 47.53 4.85 16.49
733 1 1 0 47.53 4.85 17.46
734 1 1 0 47.53 4.85 18.43
735 1 1 0 47.53 4.85 19.4
736 1 1 0 47.53 4.85 20.37
737 1 1 0 47.53 4.85 21.34
738 1 1 0 47.53 4.85 22.31
739 1 1 0 47.53 4.85 23.28
740 1 1 0 47.53 4.85 24.25
741 1 1 0 47.53 4.85 25.22
742 1 2 0 47.53 4.85 26.189999999999998
743 1 1 0 47.53 4.85 27.16
744 1 1 0 47.53 4.85 28.13
745 1 1 0 47.53 4.85 29.099999999999998
746 1 1 0 47.53 4.85 30.07
747 1 1 0 47.53 4.85 31.04
748 1 1 0 47.53 4.85 32.01
749 1 1 0 47.53 4.85 32.98
750 1 1 0 47.53 4.85 33.949999999999996
751 1 1 0 47.53 4.85 34.92
752 1 1 0 47.53 4.85 35.89
753 1 2 0 47.53 4.85 36.86
754 1 1 0 47.53 4.85 37.83
755 1 1 0 47.53 4.85 38.8
756 1 1 0 47.53 4.85 39.769999999999996
757 1 1 0 47.53 4.85 40.74
758 1 1 0 47.53 4.85 41.71
759 1 1 0 47.53 4.85 42.68
760 1 1 0 47.53 4.85 43.65
761 1 1 0 47.53 4.85 44.62
762 1 1 0 47.53 4.85 45.589999999999996
763 1 1 0 47.53 4.85 46.56
764 1 2 0 47.53 4.85 47.53
765 1 1 0 47.53 4.85 48.5
766 1 1 0 47.53 4.85 49.47
767 1 1 0 47.53 4.85 50.44
768 1 1 0 47.53 4.85 51.41
769 1 1 0 47.53 4.85 52.379999999999995
770 1 1 0 47.53 4.85 53.35
771 1 1 0 47.53 4.85 54.32
772 1 1 0 47.53 4.85 55.29
773 1 1 0 47.53 4.85 56.26
774 1 1 0 47.53 4.85 57.23
775 1 2 0 47.53 4.85 58.199999999999996
776 1 1 0 47.53 4.85 59.17
777 1 1 0 47.53 4.85 60.14
778 1 1 0 47.53 4.85 61.11
779 1 1 0 47.53 4.85 62.08
780 1 1 0 47.53 4.85 63.05
781 1 1 0 48.5 4.85 4.85
782 1 1 0 48.5 4.85 15.52
783 1 1 0 48.5 4.85 26.189999999999998
784 1 1 0 48.5 4.85 36.86
785 1 1 0 48.5 4.85 47.53
786 1 1 0 48.5 4.85 58.199999999999996
787 1 1 0 49.47 4.85 4.85
788 1 1 0 49.47 4.85 15.52
789 1 1 0 49.47 4.85 26.189999999999998
790 1 1 0 49.47 4.85 36.86
791 1 1 0 49.47 4.85 47.53
792 1 1 0 49.47 4.85 58.199999999999996
793 1 1 0 50.44 4.85 4.85
794 1 1 0 50.44 4.85 15.52
795 1 1 0 50.44 4.85 26.189999999999998
796 1 1 0 50.44 4.85 36.86
797 1 1 0 50.44 4.85 47.53
798 1 1 0 50.44 4.85 58.199999999999996
799 1 1 0 51.41 4.85 4.85
800 1 1 0 51.41 4.85 15.52
801 1 1 0 51.41 4.85 26.189999999999998
802 1 1 0 51.41 4.85 36.86
803 1 1 0 51.41 4.85 47.53
804 1 1 0 51.41 4.85 58.199999999999996
805 1 1 0 52.379999999999995 4.85 4.85
806 1 1 0 52.379999999999995 4.85 15.52
807 1 1 0 52.379999999999995 4.85 26.189999999999998
808 1 1 0 52.379999999999995 4.85 36.86
809 1 1 0 52.379999999999995 4.85 47.53
810 1 1 0 52.379999999999995 4.85 58.199999999999996
811 1 1 0 53.35 4.85 4.85
812 1 1 0 53.35 4.85 15.52
813 1 1 0 53.35 4.85 26.189999999999998
814 1 1 0 53.35 4.85 36.86
815 1 1 0 53.35 4.85 47.53
816 1 1 0 53.35 4.85 58.199999999999996
817 1 1 0 54.32 4.85 4.85
818 1 1 0 54.32 4.85 15.52
819 1 1 0 54.32 4.85 26.189999999999998
820 1 1 0 54.32 4.85 36.86
821 1 1 0 54.32 4.85 47.53
822 1 1 0 54.32 4.85 58.199999999999996
823 1 1 0 55.29 4.85 4.85
824 1 1 0 55.29 4.85 15.52
825 1 1 0 55.29 4.85 26.189999999999998
826 1 1 0 55.29 4.85 36.86
827 1 1 0 55.29 4.85 47.53
828 1 1 0 55.29 4.85 58.199999999999996
829 1 1 0 56.26 4.85 4.85
830 1 1 0 56.26 4.85 15.52
831 1 1 0 56.26 4.85 26.189999999999998
832 1 1 0 56.26 4.85 36.86
833 1 1 0 56.26 4.85 47.53
834 1 1 0 56.26 4.85 58.199999999999996
835 1 1 0 57.23 4.85 4.85
836 1 1 0 57.23 4.85 15.52
837 1 1 0 57.23 4.85 26.189999999999998
838 1 1 0 57.23 4.85 36.86
839 1 1 0 57.23 4.85 47.53
840 1 1 0 57.23 4.85 58.199999999999996
841 1 1 0 58.199999999999996 4.85 0.0
842 1 1 0 58.199999999999996 4.85 0.97
843 1 1 0 58.199999999999996 4.85 1.94
844 1 1 0 58.199999999999996 4.85 2.91
845 1 1 0 58.199999999999996 4.85 3.88
846 1 2 0 58.199999999999996 4.85 4.85
847 1 1 0 58.199999999999996 4.85 5.82
848 1 1 0 58.199999999999996 4.85 6.79
849 1 1 0 58.199999999999996 4.85 7.76
850 1 1 0 58.199999999999996 4.85 8.73
851 1 1 0 58.199999999999996 4.85 9.7
852 1 1 0 58.199999999999996 4.85 10.67
853 1 1 0 58.199999999999996 4.85 11.64
854 1 1 0 58.199999999999996 4.85 12.61
855 1 1 0 58.199999999999996 4.85 13.58
856 1 1 0 58.199999999999996 4.85 14.549999999999999
857 1 2 0 58.199999999999996 4.85 15.52
858 1 1 0 58.199999999999996 4.85 16.49
859 1 1 0 58.199999999999996 4.85 17.46
860 1 1 0 58.199999999999996 4.85 18.43
861 1 1 0 58.199999999999996 4.85 19.4
862 1 1 0 58.199999999999996 4.85 20.37
863 1 1 0 58.199999999999996 4.85 21.34
864 1 1 0 58.199999999999996 4.85 22.31
865 1 1 0 58.199999999999996 4.85 23.28
866 1 1 0 58.199999999999996 4.85 24.25
867 1 1 0 58.199999999999996 4.85 25.22
868 1 2 0 58.199999999999996 4.85 26.189999999999998
869 1 1 0 58.199999999999996 4.85 27.16
870 1 1 0 58.199999999999996 4.85 28.13
871 1 1 0 58.199999999999996 4.85 29.099999999999998
872 1 1 0 58.199999999999996 4.85 30.07
873 1 1 0 58.199999999999996 4.85 31.04
874 1 1 0 58.199999999999996 4.85 32.01
875 1 1 0 58.199999999999996 4.85 32.98
876 1 1 0 58.199999999999996 4.85 33.949999999999996
877 1 1 0 58.199999999999996 4.85 34.92
878 1 1 0 58.199999999999996 4.85 35.89
879 1 2 0 58.199999999999996 4.85 36.86
880 1 1 0 58.199999999999996 4.85 37.83
881 1 1 0 58.199999999999996 4.85 38.8
882 1 1 0 58.199999999999996 4.85 39.769999999999996
883 1 1 0 58.199999999999996 4.85 40.74
884 1 1 0 58.199999999999996 4.85 41.71
885 1 1 0 58.199999999999996 4.85 42.68
886 1 1 0 58.199999999999996 4.85 43.65
887 1 1 0 58.199999999999996 4.85 44.62
888 1 1 0 58.199999999999996 4.85 45.589999999999996
889 1 1 0 58.199999999999996 4.85 46.56
890 1 2 0 58.199999999999996 4.85 47.53
891 1 1 0 58.199999999999996 4.85 48.5
892 1 1 0 58.199999999999996 4.85 49.47
893 1 1 0 58.199999999999996 4.85 50.44
894 1 1 0 58.199999999999996 4.85 51.41
895 1 1 0 58.199999999999996 4.85 52.379999999999995
896 1 1 0 58.199999999999996 4.85 53.35
897 1 1 0 58.199999999999996 4.85 54.32
898 1 1 0 58.199999999999996 4.85 55.29
899 1 1 0 58.199999999999996 4.85 56.26
900 1 1 0 58.199999999999996 4.85 57.23
901 1 2 0 58.199999999999996 4.85 58.199999999999996
902 1 1 0 58.199999999999996 4.85 59.17
903 1 1 0 58.199999999999996 4.85 60.14
904 1 1 0 58.199999999999996 4.85 61.11
905 1 1 0 58.199999999999996 4.85 62.08